# vtk DataFile Version 3.0
MOAB 4.6.2
ASCII
DATASET UNSTRUCTURED_GRID
POINTS 1629 double
-6.123233996e-16 -7.498798913e-32 10
-1.56434465 -1.915769669e-16 9.876883406
-0.7821723252 -1.354762208 9.876883406
0.7821723252 -1.354762208 9.876883406
1.56434465 -6.947085797e-16 9.876883406
0.7821723252 1.354762208 9.876883406
-0.7821723252 1.354762208 9.876883406
-6.123233996e-16 -7.498798913e-32 -10
-1.56434465 -1.915769669e-16 -9.876883406
-0.7821723252 -1.354762208 -9.876883406
0.7821723252 -1.354762208 -9.876883406
1.56434465 -6.947085797e-16 -9.876883406
0.7821723252 1.354762208 -9.876883406
-0.7821723252 1.354762208 -9.876883406
-8.299865976 5.538443219 -0.6617185912
-8.919523942 4.415430993 -0.9726570775
-7.631135405 -6.453478683 -0.3440716799
-8.623769408 -5.061371932 -0.1145223047
-9.403538669 -3.379711399 0.3886018013
2.106394371 -9.770407029 -0.3197643508
0.7638548779 -9.969993472 -0.1255224694
-0.7666432192 -9.968571968 0.1995773055
-2.122692137 -9.76470916 0.3803066069
9.515638541 -3.057707087 -0.3210148279
9.019329119 -4.316879571 -0.1274872986
8.259282039 -5.634314228 0.1968841836
7.416492125 -6.697256986 0.3773505388
7.396784333 6.72192387 -0.3214358537
8.243396081 5.659532213 -0.1269495532
9.007679201 4.338581969 0.1960150994
9.507792874 3.07571003 0.3766729049
-2.388801776 9.710469407 0.02024773052
-1.088946814 9.940174013 0.08447145224
0.5756412494 9.983351848 0.0363734645
2.040535013 9.783861567 0.3350667117
-9.841166816 1.775202419 0.009595219152
-9.471438169 3.207691388 -0.05074408136
-8.742546013 4.814921903 0.6200131321
-7.616793629 6.470578168 0.340694854
-6.516551655 7.583590751 0.1539670766
-9.978329442 -0.6481742333 0.1131888617
-4.540535282 8.909695222 0.02950256513
3.21821188 9.458771246 -0.4180416357
1.94627352 9.750539127 -1.067242291
0.8093213619 9.834952157 -1.618244422
-0.5030473221 9.87707884 -1.47995168
-1.988759924 9.714186411 -1.295922969
-3.367098364 9.386580976 -0.7448128518
9.803818739 1.930305376 -0.3988223752
9.401065055 3.242825342 -1.050742418
8.697741504 4.647259596 -1.65899698
7.657493885 6.183855014 -1.76712325
6.613719209 7.411251322 -1.154154269
5.550555592 8.30883228 -0.3932413473
6.572735765 -7.525993885 -0.398196698
7.507187276 -6.522307029 -1.049595262
8.370215289 -5.214870363 -1.656690408
9.178962419 -3.55488271 -1.763365483
9.721751924 -2.042035708 -1.147880522
9.969687953 -0.6747207334 -0.3873939168
-3.271807904 -9.441284441 -0.3967633402
-1.91112951 -9.759368077 -1.04991368
-0.3350765102 -9.856230755 -1.656031109
1.510016065 -9.726889335 -1.762803266
3.091737301 -9.440582202 -1.147418034
4.399782865 -8.971745147 -0.3869105331
-9.77543488 -2.03132728 -0.5608764479
-9.310185507 -3.452502369 -1.183500414
-8.662877319 -4.566403924 -2.025465812
-7.786846665 -6.0063983 -1.813339039
-6.75497404 -7.281510443 -1.161865478
-5.669768923 -8.227947023 -0.3932024099
-5.616405774 8.247904611 -0.6542596624
-6.693070279 7.35006994 -1.085947569
-7.566488078 6.361041915 -1.511755249
-8.261904479 5.262524302 -2.011659105
-8.762603136 4.239283611 -2.290253425
-9.292306192 3.259179105 -1.740918493
-9.714302169 2.019307475 -1.246888402
-9.954194071 0.6670066117 -0.684925239
-6.70570827 -7.406951429 0.4129735211
-7.645368927 -6.358877928 1.054990739
-8.265052968 -5.384037772 1.6434831
-8.905289606 -4.235950478 1.659078231
-9.380455226 -2.977051743 1.773195609
-9.769493002 -1.909838735 0.9536888854
3.24706554 -9.448157315 0.4346133015
1.913071535 -9.751836911 1.114376129
0.3388962778 -9.84301175 1.732128463
-1.524531231 -9.711203788 1.835299841
-3.125924045 -9.423423123 1.194862128
-4.455068111 -8.943319954 0.4115778467
9.80623962 -1.910355191 0.4338289502
9.403464058 -3.215050949 1.112794275
8.699826804 -4.617706102 1.729104952
7.667318594 -6.153385223 1.829774817
6.637520733 -7.384372403 1.189269834
5.582431111 -8.286556704 0.4116319641
6.546886071 7.545981585 0.4432208102
7.481964469 6.539806807 1.118541289
8.347680056 5.227243 1.729788513
9.162350818 3.564331252 1.829445331
9.713737562 2.056598025 1.188994175
9.967563857 0.6917229426 0.4113272659
-3.400952033 9.373263268 0.7585914396
-2.06298985 9.694196322 1.32914655
-0.4418914217 9.829967102 1.782267867
1.438474007 9.731891611 1.794736247
3.055030971 9.449149402 1.174887803
4.371099341 8.984844483 0.4075048132
-9.94592711 0.6893059355 0.7767826278
-9.70115062 2.081550258 1.24692629
-9.250053379 3.436369885 1.621072023
-8.684875422 4.47532314 2.131764927
-8.069584911 5.58861587 1.910280613
-7.305748035 6.550521625 1.927877613
-6.591385003 7.390827871 1.388995006
-5.594755684 8.249924972 0.7984026506
4.407198888 8.890199673 -1.241349161
9.907094701 0.5973802103 -1.221724796
5.470413603 -8.281471776 -1.221392746
-4.489263119 -8.851205035 -1.225840968
-4.4797447 8.813499551 -1.501370402
-9.878280021 -0.6271776683 -1.423457765
-5.566813684 -8.213733276 1.24304911
4.453458529 -8.867093839 1.241512777
9.905955528 -0.5759217363 1.241112092
5.442510401 8.295969 1.247388823
-9.850694891 -0.5560651312 1.629294856
-4.499510767 8.796170539 1.543303828
3.134757669 9.277594212 -2.024732079
1.76312234 9.478148953 -2.656330559
0.2388254692 9.545278248 -2.971636848
-1.492531992 9.421741892 -3.000521283
-3.123503938 9.222810164 -2.276729197
9.618249377 1.886122249 -1.98288219
9.124611597 3.147126104 -2.61477733
8.543210704 4.078594165 -3.221586645
7.957721924 5.169598468 -3.154348343
7.184249281 6.142038005 -3.265261307
6.515529262 7.098735649 -2.675038432
5.52333446 8.086799459 -2.023969108
6.441764461 -7.387438234 -1.982278224
7.286407757 -6.330688491 -2.613550312
7.801425954 -5.364150605 -3.219260997
8.452346954 -4.316860493 -3.150007374
8.907731486 -3.170868054 -3.255443989
9.401232923 -2.125243803 -2.664612225
9.766860037 -0.7757037149 -2.001681484
-3.200773818 -9.264045222 -1.983056504
-1.848249932 -9.473880888 -2.61334137
-0.7464986118 -9.438325526 -3.218812061
0.4871355708 -9.478529685 -3.149630764
1.707642359 -9.299843895 -3.255282031
2.859828057 -9.204474052 -2.664402542
4.211284666 -8.846431767 -2.001431104
-9.577280384 -1.956730305 -2.108769061
-9.078626409 -3.147888273 -2.769357676
-8.502386769 -4.021793891 -3.39626164
-7.952194685 -5.097940507 -3.282316602
-7.235009696 -6.065451821 -3.29619916
-6.608371079 -7.01118039 -2.678204849
-5.622609729 -8.021051784 -2.01220976
-5.601736742 8.006798074 -2.124083348
-6.609700563 7.027541826 -2.631637199
-7.458167426 5.913438961 -3.067079766
-8.162629469 4.680896478 -3.385363837
-8.817352709 3.417767736 -3.251638803
-9.372976073 2.141560267 -2.74973438
-9.733008653 0.7824699051 -2.157842302
-6.575378636 -7.258491333 2.019579006
-7.429309208 -6.139331949 2.667202263
-8.191649944 -4.846104897 3.06792088
-8.881862908 -3.298828907 3.1984745
-9.511010541 -1.842726015 2.478918984
3.194668187 -9.258715413 2.017494506
1.85512069 -9.45720893 2.66828156
0.7537527542 -9.415176525 3.28425148
-0.4918228173 -9.455270137 3.218070377
-1.730093193 -9.271746232 3.322875163
-2.90209709 -9.175164525 2.719225701
-4.277781802 -8.806242915 2.037318967
9.616152825 -1.860722606 2.016758844
9.119637532 -3.117574127 2.667010095
8.535187531 -4.046919137 3.282227795
7.953636785 -5.138773215 3.214447345
7.189413327 -6.108676643 3.316082883
6.53921954 -7.063669126 2.709831412
5.564936876 -8.05754608 2.026679239
6.414605802 7.399177637 2.026080627
7.257857979 6.339888594 2.67007681
7.771779437 5.368818802 3.282564402
8.42687264 4.319250754 3.214325813
8.884932942 3.172207334 3.315881066
9.386904328 2.131605853 2.709664855
9.760518791 0.7909380881 2.026496946
-3.255744224 9.187344714 2.234463391
-1.907475134 9.411146684 2.791389743
-0.7905970694 9.393181431 3.338128049
0.4490058948 9.453195582 3.23040044
1.68366695 9.282907779 3.315552558
2.835114816 9.200946643 2.702721749
4.185506291 8.852208151 2.029765487
-9.711340389 0.8396993707 2.232660479
-9.361047127 2.223958189 2.724849842
-8.819069936 3.509588864 3.147505594
-8.119373313 4.777896456 3.353726652
-7.345687225 5.959228588 3.244760982
-6.482669738 7.061457096 2.847949569
-5.550998122 8.006463405 2.254542878
4.276428696 8.570560263 -2.873613473
9.579638257 0.5069831913 -2.823738464
5.228377643 -8.043162566 -2.823402763
-4.384877995 -8.53250755 -2.822970046
-4.346376976 8.485744919 -3.016809632
-9.542896574 -0.5150959267 -2.944112966
-5.340584755 -7.950300297 2.875913708
4.36480732 -8.535621087 2.844579006
9.57460377 -0.4869886833 2.844258193
5.202785323 8.048862283 2.854267127
-9.490848082 -0.4448896124 3.118633661
-4.374864457 8.464828876 3.034342282
2.879939598 8.867660235 -3.615321545
1.328477646 8.984154725 -4.18570317
-0.3115638869 8.950951912 -4.447852045
-1.726488822 8.761179854 -4.501218049
-2.96790811 8.766565093 -3.786668445
9.182480265 1.78819834 -3.533327452
8.6041549 2.99277159 -4.124540783
7.885031498 4.198745926 -4.494086217
7.114180745 5.390934575 -4.50846501
6.269021168 6.575354587 -4.179005343
5.346058767 7.648013983 -3.595488531
6.13884301 -7.059438088 -3.532554371
6.892014271 -5.958443499 -4.122752765
7.576417811 -4.736153606 -4.490739603
8.222308389 -3.483128443 -4.501273264
8.83035675 -2.177398258 -4.157371345
9.304822226 -0.8687988242 -3.558858235
-3.061070526 -8.840276321 -3.532614019
-1.720999711 -8.946845324 -4.122149772
-0.3142393606 -8.929545146 -4.490487402
1.094597525 -8.862336869 -4.501204448
2.529355379 -8.736100578 -4.157271708
3.899716184 -8.492824862 -3.558671038
-9.140637144 -1.773981095 -3.647155559
-8.563163883 -2.959624742 -4.232356992
-7.861420935 -4.159935229 -4.570886103
-7.121749919 -5.351309002 -4.543585594
-6.32060922 -6.528387302 -4.174932135
-5.439362585 -7.593945499 -3.570059723
-5.455209636 7.554871031 -3.628306978
-6.423432809 6.4633296 -4.118844672
-7.26034127 5.213139786 -4.484486394
-8.000193777 3.729230171 -4.699972539
-8.767198438 2.300085329 -4.224433574
-9.261104298 0.9134870764 -3.660257988
-6.293463469 -6.872817347 3.627216464
-7.139954808 -5.579111282 4.230196525
-7.894289321 -4.139003714 4.533083318
-8.415660883 -2.826105514 4.603235767
-9.042007319 -1.74729317 3.897315771
3.065512531 -8.818043298 3.583956657
[...]
POINT_DATA 1629
SCALARS GLOBAL_ID int 1
LOOKUP_TABLE default
36883 
36884 
36885 
36886 
36887 
36888 
36889 
36890 
36891 
36892 
36893 
36894 
36895 
36896 
36897 
36898 
36899 
36900 
36901 
36902 
36903 
36904 
36905 
36906 
36907 
36908 
36909 
36910 
36911 
36912 
36913 
36914 
36915 
36916 
36917 
36918 
36919 
36920 
36921 
36922 
36923 
36924 
36925 
36926 
36927 
36928 
36929 
36930 
36931 
36932 
36933 
36934 
36935 
36936 
36937 
36938 
36939 
36940 
36941 
36942 
36943 
36944 
36945 
36946 
36947 
36948 
36949 
36950 
36951 
36952 
36953 
36954 
36955 
36956 
36957 
36958 
36959 
36960 
36961 
36962 
36963 
36964 
36965 
36966 
36967 
36968 
36969 
36970 
36971 
36972 
36973 
36974 
36975 
36976 
36977 
36978 
36979 
36980 
36981 
36982 
36983 
36984 
36985 
36986 
36987 
36988 
36989 
36990 
36991 
36992 
36993 
36994 
36995 
36996 
36997 
36998 
36999 
37000 
37001 
37002 
37003 
37004 
37005 
37006 
37007 
37008 
37009 
37010 
37011 
37012 
37013 
37014 
37015 
37016 
37017 
37018 
37019 
37020 
37021 
37022 
37023 
37024 
37025 
37026 
37027 
37028 
37029 
37030 
37031 
37032 
37033 
37034 
37035 
37036 
37037 
37038 
37039 
37040 
37041 
37042 
37043 
37044 
37045 
37046 
37047 
37048 
37049 
37050 
37051 
37052 
37053 
37054 
37055 
37056 
37057 
37058 
37059 
37060 
37061 
37062 
37063 
37064 
37065 
37066 
37067 
37068 
37069 
37070 
37071 
37072 
37073 
37074 
37075 
37076 
37077 
37078 
37079 
37080 
37081 
37082 
37083 
37084 
37085 
37086 
37087 
37088 
37089 
37090 
37091 
37092 
37093 
37094 
37095 
37096 
37097 
37098 
37099 
37100 
37101 
37102 
37103 
37104 
37105 
37106 
37107 
37108 
37109 
37110 
37111 
37112 
37113 
37114 
37115 
37116 
37117 
37118 
37119 
37120 
37121 
37122 
37123 
37124 
37125 
37126 
37127 
37128 
37129 
37130 
37131 
37132 
37133 
37134 
37135 
37136 
37137 
37138 
37139 
37140 
37141 
37142 
37143 
37144 
37145 
37146 
37147 
37148 
37149 
37150 
37151 
37152 
37153 
37154 
37155 
37156 
37157 
37158 
37159 
37160 
37161 
37162 
37163 
37164 
37165 
37166 
37167 
37168 
37169 
37170 
37171 
37172 
37173 
37174 
37175 
37176 
37177 
37178 
37179 
37180 
37181 
37182 
37183 
37184 
37185 
37186 
37187 
37188 
37189 
37190 
37191 
37192 
37193 
37194 
37195 
37196 
37197 
37198 
37199 
37200 
37201 
37202 
37203 
37204 
37205 
37206 
37207 
37208 
37209 
37210 
37211 
37212 
37213 
37214 
37215 
37216 
37217 
37218 
37219 
37220 
37221 
37222 
37223 
37224 
37225 
37226 
37227 
37228 
37229 
37230 
37231 
37232 
37233 
37234 
37235 
37236 
37237 
37238 
37239 
37240 
37241 
37242 
37243 
37244 
37245 
37246 
37247 
37248 
37249 
37250 
37251 
37252 
37253 
37254 
37255 
37256 
37257 
37258 
37259 
37260 
37261 
37262 
37263 
37264 
37265 
37266 
37267 
37268 
37269 
37270 
37271 
37272 
37273 
37274 
37275 
37276 
37277 
37278 
37279 
37280 
37281 
37282 
37283 
37284 
37285 
37286 
37287 
37288 
37289 
37290 
37291 
37292 
37293 
37294 
37295 
37296 
37297 
37298 
37299 
37300 
37301 
37302 
37303 
37304 
37305 
37306 
37307 
37308 
37309 
37310 
37311 
37312 
37313 
37314 
37315 
37316 
37317 
37318 
37319 
37320 
37321 
37322 
37323 
37324 
37325 
37326 
37327 
37328 
37329 
37330 
37331 
37332 
37333 
37334 
37335 
37336 
37337 
37338 
37339 
37340 
37341 
37342 
37343 
37344 
37345 
37346 
37347 
37348 
37349 
37350 
37351 
37352 
37353 
37354 
37355 
37356 
37357 
37358 
37359 
37360 
37361 
37362 
37363 
37364 
37365 
37366 
37367 
37368 
37369 
37370 
37371 
37372 
37373 
37374 
37375 
37376 
37377 
37378 
37379 
37380 
37381 
37382 
37383 
37384 
37385 
37386 
37387 
37388 
37389 
37390 
37391 
37392 
37393 
37394 
37395 
37396 
37397 
37398 
37399 
37400 
37401 
37402 
37403 
37404 
37405 
37406 
37407 
37408 
37409 
37410 
37411 
37412 
37413 
37414 
37415 
37416 
37417 
37418 
37419 
37420 
37421 
37422 
37423 
37424 
37425 
37426 
37427 
37428 
37429 
37430 
37431 
37432 
37433 
37434 
37435 
37436 
37437 
37438 
37439 
37440 
37441 
37442 
37443 
37444 
37445 
37446 
37447 
37448 
37449 
37450 
37451 
37452 
37453 
37454 
37455 
37456 
37457 
37458 
37459 
37460 
37461 
37462 
37463 
37464 
37465 
37466 
37467 
37468 
37469 
37470 
37471 
37472 
37473 
37474 
37475 
37476 
37477 
37478 
37479 
37480 
37481 
37482 
37483 
37484 
37485 
37486 
37487 
37488 
37489 
37490 
37491 
37492 
37493 
37494 
37495 
37496 
37497 
37498 
37499 
37500 
37501 
37502 
37503 
37504 
37505 
37506 
37507 
37508 
37509 
37510 
37511 
37512 
37513 
37514 
37515 
37516 
37517 
37518 
37519 
37520 
37521 
37522 
37523 
37524 
37525 
37526 
37527 
37528 
37529 
37530 
37531 
37532 
37533 
37534 
37535 
37536 
37537 
37538 
37539 
37540 
37541 
37542 
37543 
37544 
37545 
37546 
37547 
37548 
37549 
37550 
37551 
37552 
37553 
37554 
37555 
37556 
37557 
37558 
37559 
37560 
37561 
37562 
37563 
37564 
37565 
37566 
37567 
37568 
37569 
37570 
37571 
37572 
37573 
37574 
37575 
37576 
37577 
37578 
37579 
37580 
37581 
37582 
37583 
37584 
37585 
37586 
37587 
37588 
37589 
37590 
37591 
37592 
37593 
37594 
37595 
37596 
37597 
37598 
37599 
37600 
37601 
37602 
37603 
37604 
37605 
37606 
37607 
37608 
37609 
37610 
37611 
37612 
37613 
37614 
37615 
37616 
37617 
37618 
37619 
37620 
37621 
37622 
37623 
37624 
37625 
37626 
37627 
37628 
37629 
37630 
37631 
37632 
37633 
37634 
37635 
37636 
37637 
37638 
37639 
37640 
37641 
37642 
37643 
37644 
37645 
37646 
37647 
37648 
37649 
37650 
37651 
37652 
37653 
37654 
37655 
37656 
37657 
37658 
37659 
37660 
37661 
37662 
37663 
37664 
37665 
37666 
37667 
37668 
37669 
37670 
37671 
37672 
37673 
37674 
37675 
37676 
37677 
37678 
37679 
37680 
37681 
37682 
37683 
37684 
37685 
37686 
37687 
37688 
37689 
37690 
37691 
37692 
37693 
37694 
37695 
37696 
37697 
37698 
37699 
37700 
37701 
37702 
37703 
37704 
37705 
37706 
37707 
37708 
37709 
37710 
37711 
37712 
37713 
37714 
37715 
37716 
37717 
37718 
37719 
37720 
37721 
37722 
37723 
37724 
37725 
37726 
37727 
37728 
37729 
37730 
37731 
37732 
37733 
37734 
37735 
37736 
37737 
37738 
37739 
37740 
37741 
37742 
37743 
37744 
37745 
37746 
37747 
37748 
37749 
37750 
37751 
37752 
37753 
37754 
37755 
37756 
37757 
37758 
37759 
37760 
37761 
37762 
37763 
37764 
37765 
37766 
37767 
37768 
37769 
37770 
37771 
37772 
37773 
37774 
37775 
37776 
37777 
37778 
37779 
37780 
37781 
37782 
37783 
37784 
37785 
37786 
37787 
37788 
37789 
37790 
37791 
37792 
37793 
37794 
37795 
37796 
37797 
37798 
37799 
37800 
37801 
37802 
37803 
37804 
37805 
37806 
37807 
37808 
37809 
37810 
37811 
37812 
37813 
37814 
37815 
37816 
37817 
37818 
37819 
37820 
37821 
37822 
37823 
37824 
37825 
37826 
37827 
37828 
37829 
37830 
37831 
37832 
37833 
37834 
37835 
37836 
37837 
37838 
37839 
37840 
37841 
37842 
37843 
37844 
37845 
37846 
37847 
37848 
37849 
37850 
37851 
37852 
37853 
37854 
37855 
37856 
37857 
37858 
37859 
37860 
37861 
37862 
37863 
37864 
37865 
37866 
37867 
37868 
37869 
37870 
37871 
37872 
37873 
37874 
37875 
37876 
37877 
37878 
37879 
37880 
37881 
37882 
37883 
37884 
37885 
37886 
37887 
37888 
37889 
37890 
37891 
37892 
37893 
37894 
37895 
37896 
37897 
37898 
37899 
37900 
37901 
37902 
37903 
37904 
37905 
37906 
37907 
37908 
37909 
37910 
37911 
37912 
37913 
37914 
37915 
37916 
37917 
37918 
37919 
37920 
37921 
37922 
37923 
37924 
37925 
37926 
37927 
37928 
37929 
37930 
37931 
37932 
37933 
37934 
37935 
37936 
37937 
37938 
37939 
37940 
37941 
37942 
37943 
37944 
37945 
37946 
37947 
37948 
37949 
37950 
37951 
37952 
37953 
37954 
37955 
37956 
37957 
37958 
37959 
37960 
37961 
37962 
37963 
37964 
37965 
37966 
37967 
37968 
37969 
37970 
37971 
37972 
37973 
37974 
37975 
37976 
37977 
37978 
37979 
37980 
37981 
37982 
37983 
37984 
37985 
37986 
37987 
37988 
37989 
37990 
37991 
37992 
37993 
37994 
37995 
37996 
37997 
37998 
37999 
38000 
38001 
38002 
38003 
38004 
38005 
38006 
38007 
38008 
38009 
38010 
38011 
38012 
38013 
38014 
38015 
38016 
38017 
38018 
38019 
38020 
38021 
38022 
38023 
38024 
38025 
38026 
38027 
38028 
38029 
38030 
38031 
38032 
38033 
38034 
38035 
38036 
38037 
38038 
38039 
38040 
38041 
38042 
38043 
38044 
38045 
38046 
38047 
38048 
38049 
38050 
38051 
38052 
38053 
38054 
38055 
38056 
38057 
38058 
38059 
38060 
38061 
38062 
38063 
38064 
38065 
38066 
38067 
38068 
38069 
38070 
38071 
38072 
38073 
38074 
38075 
38076 
38077 
38078 
38079 
38080 
38081 
38082 
38083 
38084 
38085 
38086 
38087 
38088 
38089 
38090 
38091 
38092 
38093 
38094 
38095 
38096 
38097 
38098 
38099 
38100 
38101 
38102 
38103 
38104 
38105 
38106 
38107 
38108 
38109 
38110 
38111 
38112 
38113 
38114 
38115 
38116 
38117 
38118 
38119 
38120 
38121 
38122 
38123 
38124 
38125 
38126 
38127 
38128 
38129 
38130 
38131 
38132 
38133 
38134 
38135 
38136 
38137 
38138 
38139 
38140 
38141 
38142 
38143 
38144 
38145 
38146 
38147 
38148 
38149 
38150 
38151 
38152 
38153 
38154 
38155 
38156 
38157 
38158 
38159 
38160 
38161 
38162 
38163 
38164 
38165 
38166 
38167 
38168 
38169 
38170 
38171 
38172 
38173 
38174 
38175 
38176 
38177 
38178 
38179 
38180 
38181 
38182 
38183 
38184 
38185 
38186 
38187 
38188 
38189 
38190 
38191 
38192 
38193 
38194 
38195 
38196 
38197 
38198 
38199 
38200 
38201 
38202 
38203 
38204 
38205 
38206 
38207 
38208 
38209 
38210 
38211 
38212 
38213 
38214 
38215 
38216 
38217 
38218 
38219 
38220 
38221 
38222 
38223 
38224 
38225 
38226 
38227 
38228 
38229 
38230 
38231 
38232 
38233 
38234 
38235 
38236 
38237 
38238 
38239 
38240 
38241 
38242 
38243 
38244 
38245 
38246 
38247 
38248 
38249 
38250 
38251 
38252 
38253 
38254 
38255 
38256 
38257 
38258 
38259 
38260 
38261 
38262 
38263 
38264 
38265 
38266 
38267 
38268 
38269 
38270 
38271 
38272 
38273 
38274 
38275 
38276 
38277 
38278 
38279 
38280 
38281 
38282 
38283 
38284 
38285 
38286 
38287 
38288 
38289 
38290 
38291 
38292 
38293 
38294 
38295 
38296 
38297 
38298 
38299 
38300 
38301 
38302 
38303 
38304 
38305 
38306 
38307 
38308 
38309 
38310 
38311 
38312 
38313 
38314 
38315 
38316 
38317 
38318 
38319 
38320 
38321 
38322 
38323 
38324 
38325 
38326 
38327 
38328 
38329 
38330 
38331 
38332 
38333 
38334 
38335 
38336 
38337 
38338 
38339 
38340 
38341 
38342 
38343 
38344 
38345 
38346 
38347 
38348 
38349 
38350 
38351 
38352 
38353 
38354 
38355 
38356 
38357 
38358 
38359 
38360 
38361 
38362 
38363 
38364 
38365 
38366 
38367 
38368 
38369 
38370 
38371 
38372 
38373 
38374 
38375 
38376 
38377 
38378 
38379 
38380 
38381 
38382 
38383 
38384 
38385 
38386 
38387 
38388 
38389 
38390 
38391 
38392 
38393 
38394 
38395 
38396 
38397 
38398 
38399 
38400 
38401 
38402 
38403 
38404 
38405 
38406 
38407 
38408 
38409 
38410 
38411 
38412 
38413 
38414 
38415 
38416 
38417 
38418 
38419 
38420 
38421 
38422 
38423 
38424 
38425 
38426 
38427 
38428 
38429 
38430 
38431 
38432 
38433 
38434 
38435 
38436 
38437 
38438 
38439 
38440 
38441 
38442 
38443 
38444 
38445 
38446 
38447 
38448 
38449 
38450 
38451 
38452 
38453 
38454 
38455 
38456 
38457 
38458 
38459 
38460 
38461 
38462 
38463 
38464 
38465 
38466 
38467 
38468 
38469 
38470 
38471 
38472 
38473 
38474 
38475 
38476 
38477 
38478 
38479 
38480 
38481 
38482 
38483 
38484 
38485 
38486 
38487 
38488 
38489 
38490 
38491 
38492 
38493 
38494 
38495 
38496 
38497 
38498 
38499 
38500 
38501 
38502 
38503 
38504 
38505 
38506 
38507 
38508 
38509 
38510 
38511 
CELL_DATA 10885
SCALARS GLOBAL_ID int 1
LOOKUP_TABLE default
16206 
16205 
16204 
16203 
16202 
16201 
16200 
16199 
16198 
16197 
16196 
16195 
16194 
16193 
16192 
16191 
16190 
16189 
16188 
16187 
16186 
16185 
16184 
16183 
16182 
16181 
16180 
16179 
16178 
16177 
16176 
16175 
16174 
16173 
16172 
16171 
16170 
16169 
16168 
16167 
16166 
16165 
16164 
16163 
16162 
16161 
16160 
16159 
16158 
16157 
16156 
16155 
16154 
16153 
16152 
16151 
16150 
16149 
16148 
16147 
16146 
16145 
16144 
16143 
16142 
16141 
16140 
16139 
16138 
16137 
16136 
16135 
16134 
16133 
16132 
16131 
16130 
16129 
16128 
16127 
16126 
16125 
16124 
16123 
16122 
16121 
16120 
16119 
16118 
16117 
16116 
16115 
16114 
16113 
16112 
16111 
16110 
16109 
16108 
16107 
16106 
16105 
16104 
16103 
16102 
16101 
16100 
16099 
16098 
16097 
16096 
16095 
16094 
16093 
16092 
16091 
16090 
16089 
16088 
16087 
16086 
16085 
16084 
16083 
16082 
16081 
16080 
16079 
16078 
16077 
16076 
16075 
16074 
16073 
16072 
16071 
16070 
16069 
16068 
16067 
16066 
16065 
16064 
16063 
16062 
16061 
16060 
16059 
16058 
16057 
16056 
16055 
16054 
16053 
16052 
16051 
16050 
16049 
16048 
16047 
16046 
16045 
16044 
16043 
16042 
16041 
16040 
16039 
16038 
16037 
16036 
16035 
16034 
16033 
16032 
16031 
16030 
16029 
16028 
16027 
16026 
16025 
16024 
16023 
16022 
16021 
16020 
16019 
16018 
16017 
16016 
16015 
16014 
16013 
16012 
16011 
16010 
16009 
16008 
16007 
16006 
16005 
16004 
16003 
16002 
16001 
16000 
15999 
15998 
15997 
15996 
15995 
15994 
15993 
15992 
15991 
15990 
15989 
15988 
15987 
15986 
15985 
15984 
15983 
15982 
15981 
15980 
15979 
15978 
15977 
15976 
15975 
15974 
15973 
15972 
15971 
15970 
15969 
15968 
15967 
15966 
15965 
15964 
15963 
15962 
15961 
15960 
15959 
15958 
15957 
15956 
15955 
15954 
15953 
15952 
15951 
15950 
15949 
15948 
15947 
15946 
15945 
15944 
15943 
15942 
15941 
15940 
15939 
15938 
15937 
15936 
15935 
15934 
15933 
15932 
15931 
15930 
15929 
15928 
15927 
15926 
15925 
15924 
15923 
15922 
15921 
15920 
15919 
15918 
15917 
15916 
15915 
15914 
15913 
15912 
15911 
15910 
15909 
15908 
15907 
15906 
15905 
15904 
15903 
15902 
15901 
15900 
15899 
15898 
15897 
15896 
15895 
15894 
15893 
15892 
15891 
15890 
15889 
15888 
15887 
15886 
15885 
15884 
15883 
15882 
15881 
15880 
15879 
15878 
15877 
15876 
15875 
15874 
15873 
15872 
15871 
15870 
15869 
15868 
15867 
15866 
15865 
15864 
15863 
15862 
15861 
15860 
15859 
15858 
15857 
15856 
15855 
15854 
15853 
15852 
15851 
15850 
15849 
15848 
15847 
15846 
15845 
15844 
15843 
15842 
15841 
15840 
15839 
15838 
15837 
15836 
15835 
15834 
15833 
15832 
15831 
15830 
15829 
15828 
15827 
15826 
15825 
15824 
15823 
15822 
15821 
15820 
15819 
15818 
15817 
15816 
15815 
15814 
15813 
15812 
15811 
15810 
15809 
15808 
15807 
15806 
15805 
15804 
15803 
15802 
15801 
15800 
15799 
15798 
15797 
15796 
15795 
15794 
15793 
15792 
15791 
15790 
15789 
15788 
15787 
15786 
15785 
15784 
15783 
15782 
15781 
15780 
15779 
15778 
15777 
15776 
15775 
15774 
15773 
15772 
15771 
15770 
15769 
15768 
15767 
15766 
15765 
15764 
15763 
15762 
15761 
15760 
15759 
15758 
15757 
15756 
15755 
15754 
15753 
15752 
15751 
15750 
15749 
15748 
15747 
15746 
15745 
15744 
15743 
15742 
15741 
15740 
15739 
15738 
15737 
15736 
15735 
15734 
15733 
15732 
15731 
15730 
15729 
15728 
15727 
15726 
15725 
15724 
15723 
15722 
15721 
15720 
15719 
15718 
15717 
15716 
15715 
15714 
15713 
15712 
15711 
15710 
15709 
15708 
15707 
15706 
15705 
15704 
15703 
15702 
15701 
15700 
15699 
15698 
15697 
15696 
15695 
15694 
15693 
15692 
15691 
15690 
15689 
15688 
15687 
15686 
15685 
15684 
15683 
15682 
15681 
15680 
15679 
15678 
15677 
15676 
15675 
15674 
15673 
15672 
15671 
15670 
15669 
15668 
15667 
15666 
15665 
15664 
15663 
15662 
15661 
15660 
15659 
15658 
15657 
15656 
15655 
15654 
15653 
15652 
15651 
15650 
15649 
15648 
15647 
15646 
15645 
15644 
15643 
15642 
15641 
15640 
15639 
15638 
15637 
15636 
15635 
15634 
15633 
15632 
15631 
15630 
15629 
15628 
15627 
15626 
15625 
15624 
15623 
15622 
15621 
15620 
15619 
15618 
15617 
15616 
15615 
15614 
15613 
15612 
15611 
15610 
15609 
15608 
15607 
15606 
15605 
15604 
15603 
15602 
15601 
15600 
15599 
15598 
15597 
15596 
15595 
15594 
15593 
15592 
15591 
15590 
15589 
15588 
15587 
15586 
15585 
15584 
15583 
15582 
15581 
15580 
15579 
15578 
15577 
15576 
15575 
15574 
15573 
15572 
15571 
15570 
15569 
15568 
15567 
15566 
15565 
15564 
15563 
15562 
15561 
15560 
15559 
15558 
15557 
15556 
15555 
15554 
15553 
15552 
15551 
15550 
15549 
15548 
15547 
15546 
15545 
15544 
15543 
15542 
15541 
15540 
15539 
15538 
15537 
15536 
15535 
15534 
15533 
15532 
15531 
15530 
15529 
15528 
15527 
15526 
15525 
15524 
15523 
15522 
15521 
15520 
15519 
15518 
15517 
15516 
15515 
15514 
15513 
15512 
15511 
15510 
15509 
15508 
15507 
15506 
15505 
15504 
15503 
15502 
15501 
15500 
15499 
15498 
15497 
15496 
15495 
15494 
15493 
15492 
15491 
15490 
15489 
15488 
15487 
15486 
15485 
15484 
15483 
15482 
15481 
15480 
15479 
15478 
15477 
15476 
15475 
15474 
15473 
15472 
15471 
15470 
15469 
15468 
15467 
15466 
15465 
15464 
15463 
15462 
15461 
15460 
15459 
15458 
15457 
15456 
15455 
15454 
15453 
15452 
15451 
15450 
15449 
15448 
15447 
15446 
15445 
15444 
15443 
15442 
15441 
15440 
15439 
15438 
15437 
15436 
15435 
15434 
15433 
15432 
15431 
15430 
15429 
15428 
15427 
15426 
15425 
15424 
15423 
15422 
15421 
15420 
15419 
15418 
15417 
15416 
15415 
15414 
15413 
15412 
15411 
15410 
15409 
15408 
15407 
15406 
15405 
15404 
15403 
15402 
15401 
15400 
15399 
15398 
15397 
15396 
15395 
15394 
15393 
15392 
15391 
15390 
15389 
15388 
15387 
15386 
15385 
15384 
15383 
15382 
15381 
15380 
15379 
15378 
15377 
15376 
15375 
15374 
15373 
15372 
15371 
15370 
15369 
15368 
15367 
15366 
15365 
15364 
15363 
15362 
15361 
15360 
15359 
15358 
15357 
15356 
15355 
15354 
15353 
15352 
15351 
15350 
15349 
15348 
15347 
15346 
15345 
15344 
15343 
15342 
15341 
15340 
15339 
15338 
15337 
15336 
15335 
15334 
15333 
15332 
15331 
15330 
15329 
15328 
15327 
15326 
15325 
15324 
15323 
15322 
15321 
15320 
15319 
15318 
15317 
15316 
15315 
15314 
15313 
15312 
15311 
15310 
15309 
15308 
15307 
15306 
15305 
15304 
15303 
15302 
15301 
15300 
15299 
15298 
15297 
15296 
15295 
15294 
15293 
15292 
15291 
15290 
15289 
15288 
15287 
15286 
15285 
15284 
15283 
15282 
15281 
15280 
15279 
15278 
15277 
15276 
15275 
15274 
15273 
15272 
15271 
15270 
15269 
15268 
15267 
15266 
15265 
15264 
15263 
15262 
15261 
15260 
15259 
15258 
15257 
15256 
15255 
15254 
15253 
15252 
15251 
15250 
15249 
15248 
15247 
15246 
15245 
15244 
15243 
15242 
15241 
15240 
15239 
15238 
15237 
15236 
15235 
15234 
15233 
15232 
15231 
15230 
15229 
15228 
15227 
15226 
15225 
15224 
15223 
15222 
15221 
15220 
15219 
15218 
15217 
15216 
15215 
15214 
15213 
15212 
15211 
15210 
15209 
15208 
15207 
15206 
15205 
15204 
15203 
15202 
15201 
15200 
15199 
15198 
15197 
15196 
15195 
15194 
15193 
15192 
15191 
15190 
15189 
15188 
15187 
15186 
15185 
15184 
15183 
15182 
15181 
15180 
15179 
15178 
15177 
15176 
15175 
15174 
15173 
15172 
15171 
15170 
15169 
15168 
15167 
15166 
15165 
15164 
15163 
15162 
15161 
15160 
15159 
15158 
15157 
15156 
15155 
15154 
15153 
15152 
15151 
15150 
15149 
15148 
15147 
15146 
15145 
15144 
15143 
15142 
15141 
15140 
15139 
15138 
15137 
15136 
15135 
15134 
15133 
15132 
15131 
15130 
15129 
15128 
15127 
15126 
15125 
15124 
15123 
15122 
15121 
15120 
15119 
15118 
15117 
15116 
15115 
15114 
15113 
15112 
15111 
15110 
15109 
15108 
15107 
15106 
15105 
15104 
15103 
15102 
15101 
15100 
15099 
15098 
15097 
15096 
15095 
15094 
15093 
15092 
15091 
15090 
15089 
15088 
15087 
15086 
15085 
15084 
15083 
15082 
15081 
15080 
15079 
15078 
15077 
15076 
15075 
15074 
15073 
15072 
15071 
15070 
15069 
15068 
15067 
15066 
15065 
15064 
15063 
15062 
15061 
15060 
15059 
15058 
15057 
15056 
15055 
15054 
15053 
15052 
15051 
15050 
15049 
15048 
15047 
15046 
15045 
15044 
15043 
15042 
15041 
15040 
15039 
15038 
15037 
15036 
15035 
15034 
15033 
15032 
15031 
15030 
15029 
15028 
15027 
15026 
15025 
15024 
15023 
15022 
15021 
15020 
15019 
15018 
15017 
15016 
15015 
15014 
15013 
15012 
15011 
15010 
15009 
15008 
15007 
15006 
15005 
15004 
15003 
15002 
15001 
15000 
14999 
14998 
14997 