# vtk DataFile Version 3.0
MOAB 4.6.2
ASCII
DATASET UNSTRUCTURED_GRID
POINTS 12 double
0 0 0
1 0 0
4 0 0
0 1 0
1 1 0
4 1 0
0 0 1
1 0 1
4 0 1
0 1 1
1 1 1
4 1 1
CELLS 2 18
8 0 1 4 3 6 7 10 9
8 1 2 5 4 7 8 11 10
CELL_TYPES 2
12
12
CELL_DATA 2
SCALARS idx int 1
LOOKUP_TABLE default
0 
1 
VECTORS q double
9 9 9 
1 1 1 
VECTORS q_bias double
0 0 0 
0 0 0 
